# vtk DataFile Version 3.0
Bimslope
ASCII
DATASET UNSTRUCTURED_GRID

POINTS  11732   float
0.000000 0.000000 0.000000 
60.000000 0.000000 0.000000 
60.000000 5.000000 0.000000 
40.000000 5.000000 0.000000 
20.000000 15.000000 0.000000 
0.000000 15.000000 0.000000 
9.153076 7.776821 0.000000 
8.884015 6.486847 0.000000 
9.171299 4.912369 0.000000 
7.438501 4.193805 0.000000 
5.560970 4.616748 0.000000 
4.633219 5.845511 0.000000 
3.426870 7.159787 0.000000 
4.423609 8.515601 0.000000 
6.258016 8.576586 0.000000 
7.639682 8.346188 0.000000 
24.281373 8.907180 0.000000 
24.603363 7.377617 0.000000 
23.916197 5.921989 0.000000 
21.952113 5.867431 0.000000 
20.680688 6.856035 0.000000 
19.545536 8.177940 0.000000 
20.663601 9.490464 0.000000 
22.506283 9.369639 0.000000 
31.700388 0.761545 0.000000 
30.728532 1.987549 0.000000 
29.528419 2.971129 0.000000 
30.798053 4.473895 0.000000 
31.685026 5.693558 0.000000 
33.254734 6.570728 0.000000 
34.071587 5.313588 0.000000 
34.504478 4.275387 0.000000 
34.956211 2.705292 0.000000 
33.396089 1.612998 0.000000 
16.968791 2.410905 0.000000 
15.541916 2.683109 0.000000 
13.971221 2.907866 0.000000 
14.308892 4.957667 0.000000 
13.932564 6.546300 0.000000 
14.874882 8.021664 0.000000 
16.306268 9.118269 0.000000 
17.549581 8.014735 0.000000 
18.912364 7.240554 0.000000 
18.366154 5.354936 0.000000 
17.914765 3.901859 0.000000 
16.087028 12.104920 0.000000 
15.944381 11.141694 0.000000 
15.727724 10.164452 0.000000 
14.569294 9.719064 0.000000 
13.324756 10.130579 0.000000 
12.610241 10.960039 0.000000 
12.253376 11.922221 0.000000 
12.554706 13.032185 0.000000 
13.991565 12.941481 0.000000 
15.183321 12.881375 0.000000 
4.376175 3.878457 0.000000 
3.281592 3.085406 0.000000 
2.045508 2.898063 0.000000 
0.714361 3.677007 0.000000 
0.357780 5.249167 0.000000 
0.553603 6.723238 0.000000 
1.780283 7.194453 0.000000 
3.199428 6.958186 0.000000 
3.990770 5.495420 0.000000 
26.385982 4.318847 0.000000 
25.484150 4.756044 0.000000 
24.771530 5.670450 0.000000 
25.713911 6.739977 0.000000 
26.330729 7.894822 0.000000 
27.666388 8.299115 0.000000 
28.990353 8.249076 0.000000 
29.730124 7.376182 0.000000 
29.371457 6.226038 0.000000 
29.369617 5.225417 0.000000 
28.315975 4.677700 0.000000 
27.366160 4.150628 0.000000 
20.286641 2.040965 0.000000 
19.593806 0.717833 0.000000 
18.366319 1.475120 0.000000 
17.417828 2.723985 0.000000 
18.206906 3.965005 0.000000 
19.003141 4.638637 0.000000 
20.163404 4.576169 0.000000 
20.523031 3.191781 0.000000 
7.409253 8.839205 0.000000 
6.545026 9.421535 0.000000 
6.608581 10.435012 0.000000 
7.046041 11.329950 0.000000 
7.976386 12.355122 0.000000 
9.128998 11.986382 0.000000 
9.901980 11.204035 0.000000 
9.249623 10.102739 0.000000 
8.775155 8.768502 0.000000 
23.272634 0.753330 0.000000 
22.448313 1.146240 0.000000 
21.164607 1.221964 0.000000 
21.484902 2.652533 0.000000 
22.065685 3.634310 0.000000 
22.822309 4.226432 0.000000 
23.640303 4.395917 0.000000 
24.351892 4.073531 0.000000 
25.402088 3.564312 0.000000 
24.797154 2.295500 0.000000 
24.351841 1.099128 0.000000 
13.457576 4.418690 0.000000 
13.210555 3.609764 0.000000 
12.354864 3.559477 0.000000 
11.399110 3.277574 0.000000 
10.939586 4.366378 0.000000 
10.367950 5.178375 0.000000 
10.487836 6.087918 0.000000 
11.151756 6.606885 0.000000 
12.046622 6.602135 0.000000 
12.791062 5.985168 0.000000 
13.506143 5.301716 0.000000 
55.890900 2.919179 0.000000 
55.387036 1.741672 0.000000 
54.267061 1.091404 0.000000 
52.830093 1.671154 0.000000 
51.953402 2.883639 0.000000 
52.032598 4.103365 0.000000 
52.813514 4.801884 0.000000 
53.934703 4.789991 0.000000 
55.211570 4.270117 0.000000 
39.532161 1.775564 0.000000 
38.649945 0.595611 0.000000 
37.162889 0.700910 0.000000 
35.603773 1.853464 0.000000 
35.216264 4.135376 0.000000 
36.732006 5.186986 0.000000 
38.501992 5.374544 0.000000 
39.757579 3.588619 0.000000 
2.546397 11.576274 0.000000 
2.591135 12.482841 0.000000 
2.841418 13.248051 0.000000 
3.556814 13.782465 0.000000 
4.488470 13.782655 0.000000 
5.282957 13.605707 0.000000 
5.973247 13.196599 0.000000 
6.162214 12.514942 0.000000 
6.213942 11.726980 0.000000 
5.303935 11.406877 0.000000 
4.510982 11.278248 0.000000 
3.518150 11.113412 0.000000 
19.985825 11.685714 0.000000 
21.281905 10.881677 0.000000 
20.339290 9.953248 0.000000 
19.162610 9.715371 0.000000 
18.154816 9.458777 0.000000 
17.341169 10.017962 0.000000 
16.084249 10.539883 0.000000 
16.268876 11.625237 0.000000 
16.889708 12.618758 0.000000 
18.246176 12.864305 0.000000 
19.388544 12.413410 0.000000 
42.961048 2.424369 0.000000 
42.702855 1.252653 0.000000 
41.504363 0.593551 0.000000 
40.525426 1.967101 0.000000 
39.946944 3.096138 0.000000 
40.506915 3.986221 0.000000 
41.495830 4.810758 0.000000 
42.737575 3.744173 0.000000 
49.915782 2.940780 0.000000 
49.346897 3.251482 0.000000 
49.182505 3.933637 0.000000 
49.726551 4.698267 0.000000 
50.670911 4.769124 0.000000 
51.034301 4.182939 0.000000 
51.365811 3.558051 0.000000 
50.626769 3.067454 0.000000 
45.025326 2.216307 0.000000 
44.236597 1.979867 0.000000 
43.912847 2.718209 0.000000 
44.308756 3.517283 0.000000 
44.971297 3.888190 0.000000 
45.694947 3.928656 0.000000 
45.900854 3.233502 0.000000 
45.592173 2.556855 0.000000 
55.915662 0.610109 0.000000 
55.589020 1.195813 0.000000 
55.759148 1.833485 0.000000 
56.397217 2.172141 0.000000 
56.959553 2.671537 0.000000 
57.537719 2.264548 0.000000 
58.156995 2.049014 0.000000 
58.205774 1.477832 0.000000 
57.819511 1.016331 0.000000 
57.365329 0.611646 0.000000 
56.761424 0.745822 0.000000 
8.771482 1.234844 0.000000 
8.190186 1.219781 0.000000 
7.734234 1.447755 0.000000 
7.538911 2.054515 0.000000 
7.833982 2.610411 0.000000 
8.336845 3.132798 0.000000 
8.848254 2.640568 0.000000 
8.994870 1.942895 0.000000 
12.338539 1.376687 0.000000 
12.256528 0.958882 0.000000 
12.034493 0.460711 0.000000 
11.432544 0.842152 0.000000 
10.795957 0.814473 0.000000 
10.354650 1.356529 0.000000 
10.571503 1.881858 0.000000 
10.942401 2.136805 0.000000 
11.353798 2.205332 0.000000 
11.834588 2.205078 0.000000 
12.129708 1.789701 0.000000 
3.301128 9.141880 0.000000 
3.582705 8.262759 0.000000 
2.923055 7.610779 0.000000 
1.916246 7.727217 0.000000 
0.839283 7.873070 0.000000 
0.368061 8.774977 0.000000 
0.721753 9.591104 0.000000 
1.683462 9.684829 0.000000 
2.638979 9.877513 0.000000 
25.548758 0.413892 0.000000 
25.112973 1.030692 0.000000 
25.299202 1.765997 0.000000 
25.972686 2.268508 0.000000 
26.801496 2.402568 0.000000 
27.687539 2.381079 0.000000 
27.864504 1.674463 0.000000 
28.134829 1.114488 0.000000 
27.646759 0.620112 0.000000 
27.030627 0.376941 0.000000 
26.332559 0.221443 0.000000 
10.341720 7.891226 0.000000 
9.949374 8.223279 0.000000 
9.696833 8.582650 0.000000 
9.512398 9.097063 0.000000 
9.946938 9.563229 0.000000 
10.338084 10.249846 0.000000 
11.039257 10.327096 0.000000 
11.260609 9.671690 0.000000 
11.727572 9.259855 0.000000 
11.181218 8.680246 0.000000 
10.846189 8.255787 0.000000 
7.210618 2.678574 0.000000 
7.122500 2.123486 0.000000 
6.670967 1.846423 0.000000 
6.116573 1.807914 0.000000 
5.322950 1.946476 0.000000 
5.130597 2.639579 0.000000 
5.480144 3.136341 0.000000 
6.007854 3.594450 0.000000 
6.764155 3.213638 0.000000 
11.892205 12.752032 0.000000 
11.427442 12.381081 0.000000 
11.055877 12.025029 0.000000 
10.439583 12.161314 0.000000 
9.765163 12.530673 0.000000 
9.592550 13.251277 0.000000 
9.816742 13.852636 0.000000 
10.399571 14.116977 0.000000 
11.112974 13.980684 0.000000 
11.590397 13.400494 0.000000 
31.319353 8.373436 0.000000 
31.279814 8.023088 0.000000 
31.294512 7.558967 0.000000 
30.773840 7.480690 0.000000 
30.258661 7.420609 0.000000 
30.021011 7.876333 0.000000 
29.539720 8.105334 0.000000 
29.767532 8.463135 0.000000 
29.836127 8.827408 0.000000 
30.168563 9.181120 0.000000 
30.683129 8.879348 0.000000 
30.986316 8.629383 0.000000 
11.490348 7.079634 0.000000 
11.230583 7.497025 0.000000 
10.988928 7.811484 0.000000 
11.163112 8.259055 0.000000 
11.486079 8.654077 0.000000 
12.021924 8.963866 0.000000 
12.377942 8.608065 0.000000 
12.470689 8.178513 0.000000 
12.497649 7.669985 0.000000 
12.105969 7.117799 0.000000 
1.878527 10.847461 0.000000 
1.318573 10.292174 0.000000 
0.873160 10.919586 0.000000 
0.872470 11.594261 0.000000 
0.976414 12.402605 0.000000 
1.638964 12.425132 0.000000 
2.190697 12.139541 0.000000 
2.301548 11.379600 0.000000 
27.547117 8.498864 0.000000 
27.092559 8.354702 0.000000 
26.560842 8.275747 0.000000 
26.478091 8.972414 0.000000 
26.231760 9.473224 0.000000 
26.393895 10.082121 0.000000 
26.892184 10.292870 0.000000 
27.393309 10.122539 0.000000 
27.716004 9.630818 0.000000 
27.797015 9.018415 0.000000 
50.944838 1.076709 0.000000 
50.534830 0.575407 0.000000 
49.914471 0.582165 0.000000 
49.341602 0.717797 0.000000 
48.897374 1.219318 0.000000 
48.911165 1.797171 0.000000 
49.152153 2.204312 0.000000 
49.554234 2.592476 0.000000 
50.199408 2.360750 0.000000 
50.643263 1.794059 0.000000 
24.599378 10.091983 0.000000 
23.980471 9.803062 0.000000 
23.384431 10.135418 0.000000 
22.791689 10.480316 0.000000 
22.752647 11.269820 0.000000 
22.757771 12.031793 0.000000 
23.346569 12.235167 0.000000 
23.841439 12.504439 0.000000 
24.204198 11.931955 0.000000 
24.853878 11.635248 0.000000 
24.905166 10.814190 0.000000 
47.455901 0.313185 0.000000 
46.892600 0.510617 0.000000 
46.251758 0.365417 0.000000 
46.098305 1.107467 0.000000 
45.998731 1.794384 0.000000 
46.456340 2.234194 0.000000 
46.850245 2.715470 0.000000 
47.319394 2.406236 0.000000 
47.757939 2.160959 0.000000 
47.786156 1.554881 0.000000 
47.808415 0.914473 0.000000 
3.711618 0.849049 0.000000 
3.185207 0.597240 0.000000 
2.685942 0.672883 0.000000 
2.271012 0.970961 0.000000 
1.968079 1.450347 0.000000 
1.892110 2.080734 0.000000 
2.290005 2.454178 0.000000 
2.831524 2.552630 0.000000 
3.428889 2.249828 0.000000 
3.416528 1.542326 0.000000 
22.176487 13.038788 0.000000 
[...]
POINT_DATA 11732
VECTORS disp float
0.000000 -0.002572 0.000000
0.000000 -0.000972 0.000000
0.000000 -0.001529 0.000000
0.004688 -0.000294 0.000000
0.006784 -0.015628 0.000000
0.000000 -0.012626 0.000000
0.000765 -0.009933 0.000000
0.000700 -0.009487 0.000000
0.000806 -0.008767 0.000000
0.000815 -0.008748 0.000000
0.000725 -0.008988 0.000000
0.000714 -0.009404 0.000000
0.000798 -0.009234 0.000000
0.000798 -0.009870 0.000000
0.000784 -0.009948 0.000000
0.000704 -0.009996 0.000000
0.007106 -0.010703 0.000000
0.007317 -0.010302 0.000000
0.007676 -0.010157 0.000000
0.007621 -0.010611 0.000000
0.007512 -0.011214 0.000000
0.007148 -0.011757 0.000000
0.006900 -0.011674 0.000000
0.006930 -0.011127 0.000000
0.004879 -0.003166 0.000000
0.006315 -0.003718 0.000000
0.006797 -0.004559 0.000000
0.006969 -0.004133 0.000000
0.007119 -0.004148 0.000000
0.007370 -0.004351 0.000000
0.006932 -0.004294 0.000000
0.006613 -0.004170 0.000000
0.006207 -0.003771 0.000000
0.006032 -0.003669 0.000000
0.001131 -0.006748 0.000000
0.000940 -0.006274 0.000000
0.000967 -0.005282 0.000000
0.001946 -0.006634 0.000000
0.002775 -0.007177 0.000000
0.003607 -0.007908 0.000000
0.004214 -0.008910 0.000000
0.003545 -0.009036 0.000000
0.003194 -0.009530 0.000000
0.002276 -0.008759 0.000000
0.001508 -0.007911 0.000000
0.004814 -0.014784 0.000000
0.004783 -0.014665 0.000000
0.004332 -0.014325 0.000000
0.004082 -0.014117 0.000000
0.004265 -0.014051 0.000000
0.004424 -0.014199 0.000000
0.004622 -0.014230 0.000000
0.004644 -0.014465 0.000000
0.004798 -0.014543 0.000000
0.004846 -0.014703 0.000000
-0.000131 -0.006548 0.000000
-0.000079 -0.006192 0.000000
-0.000109 -0.006082 0.000000
-0.000033 -0.006544 0.000000
-0.000164 -0.007157 0.000000
-0.000207 -0.007612 0.000000
-0.000217 -0.007767 0.000000
-0.000155 -0.007534 0.000000
-0.000095 -0.006999 0.000000
0.008118 -0.006911 0.000000
0.008211 -0.007231 0.000000
0.008180 -0.007673 0.000000
0.007958 -0.007364 0.000000
0.007877 -0.007322 0.000000
0.007878 -0.007207 0.000000
0.007832 -0.006943 0.000000
0.007841 -0.006660 0.000000
0.007794 -0.006687 0.000000
0.007782 -0.006548 0.000000
0.007917 -0.006578 0.000000
0.007971 -0.006662 0.000000
0.002329 -0.004690 0.000000
0.001939 -0.003907 0.000000
0.002282 -0.003937 0.000000
0.002632 -0.004436 0.000000
0.002867 -0.004749 0.000000
0.003084 -0.005075 0.000000
0.003082 -0.005654 0.000000
0.002589 -0.005147 0.000000
0.000903 -0.010833 0.000000
0.001048 -0.010761 0.000000
0.001272 -0.010933 0.000000
0.001525 -0.011137 0.000000
0.001805 -0.011571 0.000000
0.001764 -0.011830 0.000000
0.001485 -0.012134 0.000000
0.001170 -0.011654 0.000000
0.000944 -0.011177 0.000000
0.001911 -0.002963 0.000000
0.002156 -0.002804 0.000000
0.002149 -0.002064 0.000000
0.003052 -0.002751 0.000000
0.003620 -0.003438 0.000000
0.003891 -0.003881 0.000000
0.003975 -0.004249 0.000000
0.003729 -0.004410 0.000000
0.003389 -0.004720 0.000000
0.002701 -0.004217 0.000000
0.002139 -0.003597 0.000000
0.001507 -0.006952 0.000000
0.001646 -0.006697 0.000000
0.001610 -0.007033 0.000000
0.001573 -0.007175 0.000000
0.001445 -0.007897 0.000000
0.001175 -0.008309 0.000000
0.000805 -0.008588 0.000000
0.000613 -0.008522 0.000000
0.000656 -0.008241 0.000000
0.000898 -0.007611 0.000000
0.001258 -0.007160 0.000000
0.000281 -0.001237 0.000000
0.000230 -0.001148 0.000000
0.000238 -0.001067 0.000000
0.000336 -0.001094 0.000000
0.000443 -0.001178 0.000000
0.000488 -0.001197 0.000000
0.000470 -0.001210 0.000000
0.000440 -0.001236 0.000000
0.000382 -0.001283 0.000000
0.004748 -0.001103 0.000000
0.004757 -0.001043 0.000000
0.005006 -0.001103 0.000000
0.005405 -0.001447 0.000000
0.005358 -0.001572 0.000000
0.005283 -0.001458 0.000000
0.005144 -0.001268 0.000000
0.004834 -0.001119 0.000000
0.000615 -0.012106 0.000000
0.000719 -0.012224 0.000000
0.000782 -0.012312 0.000000
0.000844 -0.012382 0.000000
0.000854 -0.012451 0.000000
0.000855 -0.012509 0.000000
0.000844 -0.012563 0.000000
0.000782 -0.012527 0.000000
0.000723 -0.012464 0.000000
0.000694 -0.012317 0.000000
0.000674 -0.012215 0.000000
0.000692 -0.012155 0.000000
0.005842 -0.013847 0.000000
0.005712 -0.014128 0.000000
0.005510 -0.013753 0.000000
0.005493 -0.013481 0.000000
0.005541 -0.013242 0.000000
0.005543 -0.013079 0.000000
0.005145 -0.012498 0.000000
0.005529 -0.013087 0.000000
0.005921 -0.013387 0.000000
0.006029 -0.013666 0.000000
0.006027 -0.013828 0.000000
0.003566 -0.000929 0.000000
0.003205 -0.000813 0.000000
0.003100 -0.000435 0.000000
0.003794 -0.000349 0.000000
0.004275 -0.000457 0.000000
0.004254 -0.000395 0.000000
0.004347 -0.000558 0.000000
0.004022 -0.000843 0.000000
0.000802 -0.001096 0.000000
0.000875 -0.001052 0.000000
0.000946 -0.001051 0.000000
0.000989 -0.001097 0.000000
0.000951 -0.001195 0.000000
0.000872 -0.001243 0.000000
0.000760 -0.001282 0.000000
0.000766 -0.001181 0.000000
0.002415 -0.000690 0.000000
0.002550 -0.000751 0.000000
0.002525 -0.000801 0.000000
0.002385 -0.000753 0.000000
0.002287 -0.000702 0.000000
0.002217 -0.000650 0.000000
0.002246 -0.000635 0.000000
0.002315 -0.000646 0.000000
0.000087 -0.000660 0.000000
0.000166 -0.000758 0.000000
0.000201 -0.000833 0.000000
0.000192 -0.000875 0.000000
0.000181 -0.000949 0.000000
0.000157 -0.000931 0.000000
0.000139 -0.000962 0.000000
0.000100 -0.000889 0.000000
0.000090 -0.000824 0.000000
0.000082 -0.000733 0.000000
0.000100 -0.000736 0.000000
0.000339 -0.003831 0.000000
0.000325 -0.003772 0.000000
0.000383 -0.003722 0.000000
0.000526 -0.003912 0.000000
0.000700 -0.004184 0.000000
0.000933 -0.004527 0.000000
0.000658 -0.004482 0.000000
0.000424 -0.004209 0.000000
0.000055 -0.002290 0.000000
0.000067 -0.002104 0.000000
0.000188 -0.001835 0.000000
0.000162 -0.002223 0.000000
0.000176 -0.002264 0.000000
0.000224 -0.002537 0.000000
0.000161 -0.002715 0.000000
0.000114 -0.002752 0.000000
0.000090 -0.002719 0.000000
0.000096 -0.002704 0.000000
0.000070 -0.002470 0.000000
0.000331 -0.009925 0.000000
0.000209 -0.009902 0.000000
0.000146 -0.009450 0.000000
0.000086 -0.009211 0.000000
0.000054 -0.009167 0.000000
0.000204 -0.009369 0.000000
0.000249 -0.009600 0.000000
0.000394 -0.009705 0.000000
0.000457 -0.009923 0.000000
0.002095 -0.000644 0.000000
0.002485 -0.000680 0.000000
0.002843 -0.000873 0.000000
0.003109 -0.001196 0.000000
0.003178 -0.001550 0.000000
0.003313 -0.002126 0.000000
0.002763 -0.001907 0.000000
0.002469 -0.001781 0.000000
0.002008 -0.001441 0.000000
0.001856 -0.001037 0.000000
0.001761 -0.000681 0.000000
0.000728 -0.010612 0.000000
0.000881 -0.010608 0.000000
0.001015 -0.010611 0.000000
0.001160 -0.010668 0.000000
0.001307 -0.010769 0.000000
0.001557 -0.010989 0.000000
0.001699 -0.011289 0.000000
0.001345 -0.011125 0.000000
0.001166 -0.011165 0.000000
0.000982 -0.010977 0.000000
0.000869 -0.010842 0.000000
0.000204 -0.005415 0.000000
0.000016 -0.005125 0.000000
-0.000110 -0.004845 0.000000
-0.000076 -0.004498 0.000000
-0.000022 -0.003997 0.000000
0.000264 -0.004313 0.000000
0.000430 -0.004624 0.000000
0.000530 -0.005131 0.000000
0.000409 -0.005393 0.000000
0.003930 -0.015196 0.000000
0.003838 -0.015102 0.000000
0.003759 -0.014987 0.000000
0.003776 -0.014878 0.000000
0.003808 -0.014745 0.000000
0.003980 -0.014826 0.000000
0.004072 -0.014914 0.000000
0.004143 -0.015011 0.000000
0.004125 -0.015139 0.000000
0.004033 -0.015193 0.000000
0.008081 -0.005955 0.000000
0.008187 -0.005948 0.000000
0.008318 -0.005875 0.000000
0.008344 -0.006093 0.000000
0.008314 -0.006251 0.000000
0.008233 -0.006482 0.000000
0.008195 -0.006831 0.000000
0.008060 -0.006624 0.000000
0.007968 -0.006575 0.000000
0.007898 -0.006451 0.000000
0.007926 -0.006242 0.000000
0.007998 -0.006099 0.000000
0.000597 -0.009884 0.000000
0.000774 -0.010042 0.000000
0.000926 -0.010086 0.000000
0.001080 -0.010189 0.000000
0.001257 -0.010356 0.000000
0.001376 -0.010611 0.000000
0.001225 -0.010720 0.000000
0.001050 -0.010664 0.000000
0.000847 -0.010584 0.000000
0.000717 -0.010176 0.000000
0.000199 -0.011465 0.000000
0.000036 -0.011210 0.000000
0.000203 -0.011261 0.000000
0.000362 -0.011404 0.000000
0.000354 -0.011726 0.000000
0.000514 -0.011635 0.000000
0.000529 -0.011697 0.000000
0.000361 -0.011625 0.000000
0.008300 -0.007470 0.000000
0.008268 -0.007408 0.000000
0.008266 -0.007349 0.000000
0.008475 -0.007394 0.000000
0.008614 -0.007457 0.000000
0.008706 -0.007480 0.000000
0.008737 -0.007525 0.000000
0.008697 -0.007575 0.000000
0.008595 -0.007599 0.000000
0.008454 -0.007577 0.000000
0.000423 -0.000738 0.000000
0.000391 -0.000674 0.000000
0.000411 -0.000654 0.000000
0.000447 -0.000638 0.000000
0.000559 -0.000665 0.000000
0.000637 -0.000720 0.000000
0.000674 -0.000764 0.000000
0.000701 -0.000822 0.000000
0.000635 -0.000843 0.000000
0.000534 -0.000819 0.000000
0.008765 -0.012234 0.000000
0.008889 -0.012448 0.000000
0.008783 -0.012723 0.000000
0.008657 -0.012979 0.000000
0.008351 -0.013083 0.000000
0.008006 -0.013187 0.000000
0.007952 -0.012879 0.000000
0.007865 -0.012680 0.000000
0.008084 -0.012496 0.000000
0.008202 -0.012217 0.000000
0.008506 -0.012160 0.000000
0.000707 -0.000575 0.000000
0.000808 -0.000503 0.000000
0.000762 -0.000317 0.000000
0.001058 -0.000386 0.000000
0.001263 -0.000430 0.000000
0.001339 -0.000540 0.000000
0.001464 -0.000646 0.000000
0.001305 -0.000742 0.000000
0.001200 -0.000814 0.000000
0.001052 -0.000786 0.000000
0.000864 -0.000723 0.000000
0.000407 -0.002304 0.000000
0.000513 -0.002655 0.000000
0.000448 -0.002933 0.000000
0.000359 -0.003250 0.000000
0.000198 -0.003461 0.000000
0.000138 -0.003793 0.000000
0.000072 -0.003966 0.000000
0.000090 -0.003898 0.000000
0.000141 -0.003622 0.000000
0.000171 -0.003101 0.000000
0.007232 -0.015070 0.000000
0.007343 -0.015009 0.000000
0.007497 -0.014972 0.000000
0.007327 -0.015109 0.000000
0.007261 -0.015240 0.000000
0.007230 -0.015396 0.000000
0.007121 -0.015435 0.000000
0.007169 -0.015225 0.000000
0.000954 -0.012578 0.000000
0.000830 -0.012335 0.000000
0.000973 -0.012175 0.000000
0.001066 -0.011870 0.000000
0.001459 -0.011814 0.000000
0.001757 -0.012076 0.000000
0.001942 -0.012301 0.000000
0.002083 -0.012622 0.000000
0.002174 -0.013116 0.000000
0.001473 -0.012832 0.000000
0.001154 -0.012782 0.000000
0.000140 -0.001471 0.000000
0.000122 -0.001447 0.000000
0.000140 -0.001406 0.000000
0.000162 -0.001375 0.000000
0.000180 -0.001382 0.000000
0.000203 -0.001402 0.000000
0.000196 -0.001422 0.000000
0.000188 -0.001440 0.000000
0.000169 -0.001456 0.000000
0.006397 -0.001844 0.000000
0.006317 -0.001892 0.000000
0.006225 -0.001899 0.000000
0.006159 -0.001735 0.000000
0.006140 -0.001574 0.000000
0.006203 -0.001509 0.000000
0.006199 -0.001439 0.000000
0.006311 -0.001625 0.000000
0.000580 -0.011536 0.000000
0.000741 -0.011666 0.000000
0.000806 -0.011694 0.000000
0.000828 -0.011792 0.000000
0.000838 -0.011917 0.000000
0.000848 -0.011963 0.000000
0.000831 -0.011939 0.000000
0.000813 -0.011959 0.000000
0.000777 -0.011874 0.000000
0.000754 -0.011764 0.000000
0.000698 -0.011742 0.000000
0.000644 -0.011670 0.000000
0.001055 -0.013032 0.000000
0.001014 -0.013011 0.000000
0.001034 -0.012875 0.000000
0.000923 -0.012902 0.000000
0.000870 -0.012820 0.000000
0.000944 -0.012808 0.000000
0.001020 -0.012870 0.000000
0.001055 -0.012930 0.000000
0.001064 -0.012983 0.000000
0.000466 -0.002049 0.000000
0.000499 -0.001813 0.000000
0.000559 -0.001709 0.000000
0.000583 -0.001578 0.000000
0.000611 -0.001722 0.000000
0.000611 -0.002117 0.000000
0.000452 -0.002580 0.000000
0.000398 -0.002448 0.000000
0.000391 -0.002395 0.000000
0.007339 -0.004802 0.000000
0.007484 -0.005026 0.000000
0.007365 -0.004955 0.000000
0.007380 -0.004965 0.000000
0.007426 -0.004998 0.000000
0.007360 -0.004920 0.000000
0.007446 -0.005002 0.000000
0.007286 -0.004855 0.000000
0.007219 -0.004728 0.000000
0.007234 -0.004703 0.000000
0.000352 -0.004541 0.000000
0.000283 -0.004314 0.000000
0.000242 -0.003883 0.000000
0.000287 -0.003934 0.000000
0.000423 -0.003824 0.000000
0.000709 -0.004173 0.000000
0.001029 -0.004439 0.000000
0.001277 -0.004614 0.000000
0.000865 -0.004670 0.000000
0.000738 -0.004878 0.000000
0.000439 -0.004764 0.000000
0.001022 -0.006815 0.000000
0.000865 -0.006585 0.000000
0.001096 -0.006555 0.000000
0.001280 -0.006766 0.000000
0.001306 -0.006900 0.000000
0.001290 -0.007178 0.000000
0.007768 -0.004435 0.000000
0.007693 -0.004356 0.000000
0.007874 -0.004331 0.000000
0.008050 -0.004352 0.000000
0.008062 -0.004423 0.000000
0.008003 -0.004504 0.000000
0.005865 -0.002585 0.000000
0.005729 -0.002419 0.000000
0.005975 -0.002716 0.000000
0.005964 -0.002826 0.000000
0.005859 -0.002675 0.000000
0.005879 -0.002591 0.000000
-0.000372 -0.001232 0.000000
-0.000129 -0.000719 0.000000
-0.000176 -0.000893 0.000000
-0.000327 -0.001593 0.000000
-0.000579 -0.002068 0.000000
-0.000522 -0.001627 0.000000
0.001126 -0.000958 0.000000
0.001190 -0.000882 0.000000
0.001268 -0.000854 0.000000
0.001338 -0.000916 0.000000
0.001277 -0.001011 0.000000
0.001167 -0.001040 0.000000
0.005087 -0.015143 0.000000
0.005081 -0.015074 0.000000
0.005052 -0.015095 0.000000
0.005058 -0.015136 0.000000
0.005054 -0.015149 0.000000
0.005058 -0.015131 0.000000
0.001838 -0.000834 0.000000
0.001670 -0.000901 0.000000
0.001468 -0.000846 0.000000
0.001633 -0.000600 0.000000
0.001802 -0.000463 0.000000
0.001877 -0.000631 0.000000
0.003043 -0.007508 0.000000
0.003078 -0.007696 0.000000
0.003088 -0.007692 0.000000
0.003132 -0.007689 0.000000
0.003058 -0.007615 0.000000
0.003043 -0.007443 0.000000
-0.000064 -0.002811 0.000000
-0.000320 -0.002454 0.000000
-0.000387 -0.002087 0.000000
-0.000354 -0.001715 0.000000
-0.000118 -0.001970 0.000000
-0.000049 -0.002337 0.000000
0.001475 -0.000322 0.000000
0.001789 -0.000254 0.000000
0.001999 -0.000327 0.000000
0.002009 -0.000497 0.000000
0.001818 -0.000620 0.000000
0.001620 -0.000517 0.000000
0.004344 -0.015337 0.000000
0.004290 -0.015378 0.000000
0.004296 -0.015421 0.000000
0.004277 -0.015422 0.000000
0.004285 -0.015391 0.000000
0.004309 -0.015365 0.000000
0.004873 -0.014802 0.000000
0.004844 -0.014720 0.000000
0.004886 -0.014704 0.000000
0.004946 -0.014754 0.000000
0.004990 -0.014815 0.000000
0.004949 -0.014862 0.000000
0.003121 -0.003026 0.000000
0.002694 -0.002654 0.000000
0.002802 -0.002342 0.000000
0.003299 -0.002834 0.000000
0.003788 -0.003026 0.000000
0.003605 -0.003202 0.000000
0.002390 -0.006317 0.000000
0.002698 -0.006164 0.000000
0.002986 -0.006358 0.000000
0.003236 -0.006793 0.000000
0.002929 -0.006983 0.000000
0.002574 -0.006634 0.000000
0.000077 -0.000658 0.000000
0.000079 -0.000610 0.000000
0.000104 -0.000517 0.000000
0.000109 -0.000608 0.000000
0.000108 -0.000691 0.000000
0.000081 -0.000683 0.000000
0.003734 -0.000845 0.000000
0.003258 -0.000701 0.000000
0.003658 -0.000472 0.000000
0.004073 -0.000466 0.000000
0.004250 -0.000593 0.000000
0.004087 -0.000766 0.000000
0.008491 -0.007399 0.000000
0.008364 -0.007388 0.000000
0.008363 -0.007304 0.000000
0.008475 -0.007289 0.000000
0.008563 -0.007305 0.000000
0.008591 -0.007367 0.000000
0.003099 -0.012806 0.000000
0.002646 -0.012751 0.000000
0.002384 -0.012526 0.000000
0.002394 -0.012277 0.000000
0.002639 -0.012304 0.000000
0.002872 -0.012438 0.000000
0.000260 -0.000651 0.000000
0.000210 -0.000599 0.000000
0.000183 -0.000509 0.000000
0.000235 -0.000540 0.000000
0.000307 -0.000621 0.000000
0.000298 -0.000650 0.000000
0.006623 -0.004696 0.000000
0.007114 -0.004802 0.000000
0.007448 -0.005138 0.000000
0.007248 -0.005292 0.000000
0.006947 -0.005196 0.000000
0.006829 -0.005066 0.000000
0.003213 -0.006492 0.000000
0.003143 -0.006300 0.000000
0.003135 -0.006044 0.000000
0.003404 -0.006363 0.000000
0.003516 -0.006471 0.000000
0.003477 -0.006686 0.000000
0.000443 -0.009684 0.000000
0.000441 -0.009787 0.000000
0.000369 -0.009846 0.000000
0.000310 -0.009816 0.000000
0.000317 -0.009508 0.000000
0.000397 -0.009589 0.000000
0.004985 -0.015071 0.000000
0.004939 -0.015062 0.000000
0.004915 -0.015036 0.000000
0.004925 -0.014977 0.000000
0.004962 -0.014995 0.000000
0.004993 -0.015039 0.000000
0.000107 -0.012053 0.000000
0.000121 -0.012097 0.000000
0.000163 -0.012137 0.000000
0.000224 -0.012174 0.000000
0.000252 -0.012344 0.000000
0.000153 -0.012135 0.000000
0.006445 -0.012785 0.000000
0.006276 -0.012618 0.000000
0.006399 -0.012800 0.000000
0.006316 -0.012966 0.000000
0.006300 -0.012972 0.000000
0.006336 -0.012902 0.000000
0.000154 -0.001159 0.000000
0.000075 -0.000758 0.000000
0.000150 -0.000779 0.000000
0.000369 -0.001009 0.000000
0.000535 -0.001243 0.000000
0.000448 -0.001423 0.000000
0.000116 -0.000925 0.000000
0.000098 -0.000864 0.000000
0.000083 -0.000782 0.000000
0.000093 -0.000735 0.000000
0.000326 -0.003837 0.000000
0.000352 -0.003761 0.000000
0.000463 -0.003822 0.000000
0.000601 -0.004034 0.000000
0.000056 -0.002205 0.000000
0.000072 -0.002370 0.000000
0.000112 -0.001975 0.000000
0.000168 -0.002259 0.000000
0.000188 -0.002617 0.000000
0.000138 -0.002723 0.000000
0.000100 -0.002735 0.000000
0.000085 -0.002698 0.000000
0.000068 -0.002583 0.000000
0.002635 -0.001844 0.000000
0.000817 -0.010615 0.000000
0.000818 -0.010740 0.000000
0.000948 -0.010611 0.000000
0.001090 -0.010635 0.000000
0.001226 -0.010709 0.000000
0.001247 -0.011145 0.000000
0.000918 -0.010902 0.000000
0.000101 -0.005270 0.000000
-0.000052 -0.005008 0.000000
-0.000100 -0.004686 0.000000
0.000341 -0.004443 0.000000
0.003885 -0.015161 0.000000
0.003794 -0.015044 0.000000
0.003768 -0.014933 0.000000
0.004032 -0.014868 0.000000
0.004109 -0.014954 0.000000
0.008138 -0.005953 0.000000
0.008040 -0.006024 0.000000
0.008246 -0.005913 0.000000
0.008335 -0.005995 0.000000
0.008340 -0.006189 0.000000
0.008283 -0.006352 0.000000
0.008224 -0.006632 0.000000
0.008105 -0.006721 0.000000
0.008012 -0.006598 0.000000
0.007921 -0.006505 0.000000
0.007897 -0.006358 0.000000
0.007960 -0.006167 0.000000
0.000691 -0.009964 0.000000
0.000640 -0.010019 0.000000
0.000855 -0.010080 0.000000
0.000984 -0.010112 0.000000
0.001169 -0.010261 0.000000
0.001317 -0.010471 0.000000
0.001295 -0.010658 0.000000
0.001139 -0.010686 0.000000
0.000949 -0.010622 0.000000
0.000522 -0.011645 0.000000
0.008279 -0.007431 0.000000
0.008382 -0.007537 0.000000
0.008272 -0.007391 0.000000
0.008552 -0.007420 0.000000
0.008659 -0.007459 0.000000
0.008720 -0.007497 0.000000
0.008717 -0.007546 0.000000
0.008647 -0.007587 0.000000
0.008531 -0.007593 0.000000
0.000404 -0.000667 0.000000
0.000430 -0.000652 0.000000
0.000595 -0.000692 0.000000
0.000654 -0.000741 0.000000
0.000686 -0.000791 0.000000
0.007980 -0.013016 0.000000
0.007907 -0.012776 0.000000
0.000755 -0.000534 0.000000
0.001298 -0.000482 0.000000
0.001393 -0.000589 0.000000
0.001377 -0.000701 0.000000
0.001249 -0.000779 0.000000
0.001133 -0.000805 0.000000
0.000963 -0.000759 0.000000
0.000461 -0.002564 0.000000
0.000485 -0.002808 0.000000
0.000413 -0.003113 0.000000
0.000291 -0.003376 0.000000
0.000164 -0.003667 0.000000
0.000101 -0.003854 0.000000
0.000083 -0.003946 0.000000
0.000890 -0.012468 0.000000
0.001057 -0.012695 0.000000
0.000904 -0.012261 0.000000
0.001014 -0.012031 0.000000
0.001250 -0.011848 0.000000
0.001608 -0.011950 0.000000
0.001849 -0.012185 0.000000
0.002000 -0.012467 0.000000
0.002073 -0.012807 0.000000
0.001733 -0.012930 0.000000
0.001298 -0.012805 0.000000
0.000192 -0.001431 0.000000
0.000179 -0.001448 0.000000
0.006274 -0.001892 0.000000
0.000674 -0.011599 0.000000
0.000611 -0.011642 0.000000
0.000773 -0.011689 0.000000
0.000817 -0.011741 0.000000
0.000837 -0.011849 0.000000
0.000843 -0.011945 0.000000
0.000840 -0.011947 0.000000
0.000824 -0.011942 0.000000
0.000793 -0.011914 0.000000
0.000755 -0.011829 0.000000
0.000726 -0.011766 0.000000
0.000671 -0.011710 0.000000
0.001029 -0.013018 0.000000
0.001057 -0.012999 0.000000
0.000999 -0.012954 0.000000
0.001038 -0.012901 0.000000
0.000491 -0.001922 0.000000
0.000434 -0.002208 0.000000
0.000543 -0.001790 0.000000
0.000569 -0.001662 0.000000
0.000605 -0.001636 0.000000
0.000626 -0.001952 0.000000
0.000565 -0.002326 0.000000
0.007411 -0.004887 0.000000
0.007286 -0.004752 0.000000
0.007370 -0.004954 0.000000
0.007395 -0.004975 0.000000
0.007380 -0.004968 0.000000